98967
Atoms. Timestep: 0
C -179.453181 292.933295 0.000000
C -179.378305 294.351319 0.000000
C -179.602933 290.097245 0.000000
C -178.337450 290.741413 0.000000
C -178.262574 292.159438 0.000000
C -176.997091 292.803606 0.000000
C -175.806484 292.029749 0.000000
C -174.541000 292.673917 0.000000
C -179.677809 288.679221 0.000000
C -178.487202 287.905364 0.000000
C -177.221719 288.549532 0.000000
C -177.146843 289.967557 0.000000
C -175.881360 290.611724 0.000000
C -174.690752 289.837868 0.000000
C -173.425269 290.482035 0.000000
C -173.350393 291.900060 0.000000
C -179.902437 284.425147 0.000000
C -179.827561 285.843172 0.000000
C -178.562078 286.487340 0.000000
C -177.371471 285.713483 0.000000
C -176.105987 286.357651 0.000000
C -176.031111 287.775675 0.000000
C -174.765628 288.419843 0.000000
C -173.575021 287.645986 0.000000
C -172.309538 288.290154 0.000000
C -178.786706 282.233266 0.000000
C -178.711830 283.651291 0.000000
C -177.446347 284.295458 0.000000
C -176.255739 283.521602 0.000000
C -174.990256 284.165769 0.000000
C -174.915380 285.583794 0.000000
C -173.649897 286.227962 0.000000
C -172.459290 285.454105 0.000000
C -178.936458 279.397217 0.000000
C -177.670974 280.041385 0.000000
C -177.596098 281.459409 0.000000
C -176.330615 282.103577 0.000000
C -175.140008 281.329720 0.000000
C -173.874525 281.973888 0.000000
C -173.799649 283.391913 0.000000
C -172.534165 284.036080 0.000000
C -171.343558 283.262224 0.000000
C -179.011334 277.979192 0.000000
C -177.820726 277.205336 0.000000
C -176.555243 277.849503 0.000000
C -176.480367 279.267528 0.000000
C -175.214884 279.911696 0.000000
C -174.024277 279.137839 0.000000
C -172.758793 279.782007 0.000000
C -172.683917 281.200031 0.000000
C -171.418434 281.844199 0.000000
C -170.227827 281.070342 0.000000
C -179.235961 273.725119 0.000000
C -179.161086 275.143143 0.000000
C -177.895602 275.787311 0.000000
C -176.704995 275.013454 0.000000
C -175.439512 275.657622 0.000000
C -175.364636 277.075647 0.000000
C -174.099153 277.719815 0.000000
C -172.908545 276.945958 0.000000
C -171.643062 277.590126 0.000000
C -171.568186 279.008150 0.000000
C -170.302703 279.652318 0.000000
C -179.385713 270.889070 0.000000
C -178.120230 271.533238 0.000000
C -178.045354 272.951262 0.000000
C -176.779871 273.595430 0.000000
C -175.589264 272.821573 0.000000
C -174.323780 273.465741 0.000000
C -174.248904 274.883765 0.000000
C -172.983421 275.527933 0.000000
C -171.792814 274.754076 0.000000
C -170.527331 275.398244 0.000000
C -170.452455 276.816269 0.000000
C -169.186971 277.460437 0.000000
C -179.460589 269.471045 0.000000
C -178.269982 268.697188 0.000000
C -177.004499 269.341356 0.000000
C -176.929623 270.759381 0.000000
C -175.664140 271.403549 0.000000
C -174.473532 270.629692 0.000000
C -173.208049 271.273860 0.000000
C -173.133173 272.691884 0.000000
C -171.867690 273.336052 0.000000
C -170.677083 272.562195 0.000000
C -169.411599 273.206363 0.000000
C -169.336723 274.624388 0.000000
C -179.685217 265.216972 0.000000
C -179.610341 266.634996 0.000000
C -178.344858 267.279164 0.000000
C -177.154251 266.505307 0.000000
C -175.888767 267.149475 0.000000
C -175.813891 268.567499 0.000000
C -174.548408 269.211667 0.000000
C -173.357801 268.437811 0.000000
C -172.092318 269.081978 0.000000
C -172.017442 270.500003 0.000000
C -170.751958 271.144171 0.000000
C -169.561351 270.370314 0.000000
C -168.295868 271.014482 0.000000
C -168.220992 272.432506 0.000000
C 144.597182 288.833882 0.000000
C 147.026115 288.447250 0.000000
C 146.802893 287.044905 0.000000
C 147.905749 286.150416 0.000000
C -179.834969 262.380922 0.000000
C -178.569486 263.025090 0.000000
C -178.494610 264.443115 0.000000
C -177.229127 265.087283 0.000000
C -176.038519 264.313426 0.000000
C -174.773036 264.957594 0.000000
C -174.698160 266.375618 0.000000
C -173.432677 267.019786 0.000000
C -172.242070 266.245929 0.000000
C -170.976586 266.890097 0.000000
C -170.901710 268.308122 0.000000
C -169.636227 268.952289 0.000000
C -168.445620 268.178433 0.000000
C -167.180137 268.822600 0.000000
C -167.105261 270.240625 0.000000
C 139.739316 289.607146 0.000000
C 142.168249 289.220514 0.000000
C 141.945027 287.818169 0.000000
C 143.047883 286.923680 0.000000
C 144.373960 287.431537 0.000000
C 145.476816 286.537048 0.000000
C 145.253594 285.134703 0.000000
C 146.356449 284.240215 0.000000
C 147.682527 284.748071 0.000000
C -179.909845 260.962898 0.000000
C -178.719238 260.189041 0.000000
C -177.453754 260.833209 0.000000
C -177.378879 262.251234 0.000000
C -176.113395 262.895401 0.000000
C -174.922788 262.121545 0.000000
C -173.657305 262.765712 0.000000
C -173.582429 264.183737 0.000000
C -172.316946 264.827905 0.000000
C -171.126338 264.054048 0.000000
C -169.860855 264.698216 0.000000
C -169.785979 266.116240 0.000000
C -168.520496 266.760408 0.000000
C -167.329888 265.986551 0.000000
C -166.064405 266.630719 0.000000
C -165.989529 268.048744 0.000000
C 134.881450 290.380410 0.000000
C 137.310383 289.993778 0.000000
C 137.087161 288.591433 0.000000
C 138.190017 287.696944 0.000000
C 139.516094 288.204801 0.000000
C 140.618950 287.310312 0.000000
C 140.395728 285.907967 0.000000
C 141.498583 285.013479 0.000000
C 142.824661 285.521335 0.000000
C 143.927516 284.626847 0.000000
C 143.704294 283.224501 0.000000
C 144.807150 282.330013 0.000000
C 146.133227 282.837870 0.000000
C 147.236083 281.943381 0.000000
C 147.012861 280.541036 0.000000
C 148.115716 279.646547 0.000000
C -178.794114 258.771017 0.000000
C -177.603506 257.997160 0.000000
C -176.338023 258.641328 0.000000
C -176.263147 260.059352 0.000000
C -174.997664 260.703520 0.000000
C -173.807057 259.929663 0.000000
C -172.541573 260.573831 0.000000
C -172.466697 261.991856 0.000000
C -171.201214 262.636023 0.000000
C -170.010607 261.862167 0.000000
C -168.745124 262.506334 0.000000
C -168.670248 263.924359 0.000000
C -167.404764 264.568527 0.000000
C -166.214157 263.794670 0.000000
C -164.948674 264.438838 0.000000
C 130.023584 291.153674 0.000000
C 132.452517 290.767042 0.000000
C 132.229295 289.364697 0.000000
C 133.332151 288.470208 0.000000
C 134.658228 288.978065 0.000000
C 135.761084 288.083576 0.000000
C 135.537862 286.681231 0.000000
C 136.640717 285.786742 0.000000
C 137.966795 286.294599 0.000000
C 139.069650 285.400110 0.000000
C 138.846428 283.997765 0.000000
C 139.949284 283.103277 0.000000
C 141.275361 283.611133 0.000000
C 142.378217 282.716645 0.000000
C 142.154995 281.314300 0.000000
C 143.257850 280.419811 0.000000
C 144.583928 280.927668 0.000000
C 145.686783 280.033179 0.000000
C 145.463561 278.630834 0.000000
C 146.566417 277.736346 0.000000
C 147.892494 278.244202 0.000000
C 148.995350 277.349714 0.000000
C 148.772128 275.947368 0.000000
C -179.018741 254.516943 0.000000
C -178.943866 255.934968 0.000000
C -177.678382 256.579135 0.000000
C -176.487775 255.805279 0.000000
C -175.222292 256.449446 0.000000
C -175.147416 257.867471 0.000000
C -173.881933 258.511639 0.000000
C -172.691325 257.737782 0.000000
C -171.425842 258.381950 0.000000
C -171.350966 259.799974 0.000000
C -170.085483 260.444142 0.000000
C -168.894876 259.670285 0.000000
C -167.629392 260.314453 0.000000
C -167.554516 261.732478 0.000000
C -166.289033 262.376646 0.000000
C -165.098426 261.602789 0.000000
C 125.165718 291.926938 0.000000
C 127.594651 291.540306 0.000000
C 127.371429 290.137960 0.000000
C 128.474284 289.243472 0.000000
C 129.800362 289.751329 0.000000
C 130.903218 288.856840 0.000000
C 130.679995 287.454495 0.000000
C 131.782851 286.560006 0.000000
C 133.108929 287.067863 0.000000
C 134.211784 286.173374 0.000000
C 133.988562 284.771029 0.000000
C 135.091417 283.876541 0.000000
C 136.417495 284.384397 0.000000
C 137.520351 283.489909 0.000000
C 137.297128 282.087564 0.000000
C 138.399984 281.193075 0.000000
C 139.726062 281.700932 0.000000
C 140.828917 280.806443 0.000000
C 140.605695 279.404098 0.000000
C 141.708550 278.509609 0.000000
C 143.034628 279.017466 0.000000
C 144.137484 278.122977 0.000000
C 143.914261 276.720632 0.000000
C 145.017117 275.826144 0.000000
C 146.343195 276.334000 0.000000
C 147.446050 275.439512 0.000000
C 147.222828 274.037167 0.000000
C 148.325683 273.142678 0.000000
C 149.651761 273.650535 0.000000
C -179.168493 251.680894 0.000000
C -177.903010 252.325062 0.000000
C -177.828134 253.743086 0.000000
C -176.562651 254.387254 0.000000
C -175.372044 253.613397 0.000000
C -174.106560 254.257565 0.000000
C -174.031684 255.675590 0.000000
C -172.766201 256.319757 0.000000
C -171.575594 255.545901 0.000000
C -170.310111 256.190069 0.000000
C -170.235235 257.608093 0.000000
C -168.969751 258.252261 0.000000
C -167.779144 257.478404 0.000000
C -166.513661 258.122572 0.000000
C -166.438785 259.540596 0.000000
C -165.173302 260.184764 0.000000
C -163.982694 259.410908 0.000000
C 120.307852 292.700201 0.000000
C 122.736785 292.313569 0.000000
C 122.513563 290.911224 0.000000
C 123.616418 290.016736 0.000000
C 124.942496 290.524592 0.000000
C 126.045351 289.630104 0.000000
C 125.822129 288.227759 0.000000
C 126.924985 287.333270 0.000000
C 128.251062 287.841127 0.000000
C 129.353918 286.946638 0.000000
C 129.130696 285.544293 0.000000
C 130.233551 284.649805 0.000000
C 131.559629 285.157661 0.000000
C 132.662484 284.263173 0.000000
C 132.439262 282.860827 0.000000
C 133.542118 281.966339 0.000000
C 134.868195 282.474196 0.000000
C 135.971051 281.579707 0.000000
C 135.747829 280.177362 0.000000
C 136.850684 279.282873 0.000000
C 138.176762 279.790730 0.000000
C 139.279617 278.896241 0.000000
C 139.056395 277.493896 0.000000
C 140.159251 276.599408 0.000000
C 141.485328 277.107264 0.000000
C 142.588184 276.212776 0.000000
C 142.364962 274.810431 0.000000
C 143.467817 273.915942 0.000000
C 144.793895 274.423799 0.000000
C 145.896750 273.529310 0.000000
C 145.673528 272.126965 0.000000
C 146.776384 271.232476 0.000000
C 148.102461 271.740333 0.000000
C 149.205317 270.845844 0.000000
C 148.982095 269.443499 0.000000
C 150.084950 268.549011 0.000000
C -179.243369 250.262869 0.000000
C -178.052762 249.489013 0.000000
C -176.787279 250.133180 0.000000
C -176.712403 251.551205 0.000000
C -175.446920 252.195373 0.000000
C -174.256312 251.421516 0.000000
C -172.990829 252.065684 0.000000
C -172.915953 253.483708 0.000000
C -171.650470 254.127876 0.000000
C -170.459863 253.354019 0.000000
C -169.194379 253.998187 0.000000
C -169.119503 255.416212 0.000000
C -167.854020 256.060380 0.000000
C -166.663413 255.286523 0.000000
C -165.397930 255.930691 0.000000
C -165.323054 257.348715 0.000000
C -164.057570 257.992883 0.000000
C -162.866963 257.219026 0.000000
C 115.449986 293.473465 0.000000
C 117.878919 293.086833 0.000000
C 117.655697 291.684488 0.000000
C 118.758552 290.790000 0.000000
C 120.084630 291.297856 0.000000
C 121.187485 290.403368 0.000000
C 120.964263 289.001023 0.000000
C 122.067119 288.106534 0.000000
C 123.393196 288.614391 0.000000
C 124.496052 287.719902 0.000000
C 124.272830 286.317557 0.000000
C 125.375685 285.423068 0.000000
C 126.701763 285.930925 0.000000
C 127.804618 285.036436 0.000000
C 127.581396 283.634091 0.000000
C 128.684252 282.739603 0.000000
C 130.010329 283.247459 0.000000
C 131.113185 282.352971 0.000000
C 130.889963 280.950626 0.000000
C 131.992818 280.056137 0.000000
C 133.318896 280.563994 0.000000
C 134.421751 279.669505 0.000000
C 134.198529 278.267160 0.000000
C 135.301385 277.372672 0.000000
C 136.627462 277.880528 0.000000
C 137.730318 276.986040 0.000000
C 137.507096 275.583694 0.000000
C 138.609951 274.689206 0.000000
C 139.936029 275.197063 0.000000
C 141.038884 274.302574 0.000000
C 140.815662 272.900229 0.000000
C 141.918518 272.005740 0.000000
C 143.244595 272.513597 0.000000
C 144.347451 271.619108 0.000000
C 144.124229 270.216763 0.000000
C 145.227084 269.322275 0.000000
C 146.553162 269.830131 0.000000
C 147.656017 268.935643 0.000000
C 147.432795 267.533298 0.000000
C 148.535651 266.638809 0.000000
C 149.861728 267.146666 0.000000
C -179.467997 246.008796 0.000000
C -179.393121 247.426820 0.000000
C -178.127638 248.070988 0.000000
C -176.937031 247.297131 0.000000
C -175.671547 247.941299 0.000000
C -175.596671 249.359324 0.000000
C -174.331188 250.003492 0.000000
C -48.989691 -299.488033 0.000000
C -173.140581 249.229635 0.000000
C -50.346913 -299.070485 0.000000
C -171.875098 249.873803 0.000000
C -171.800222 251.291827 0.000000
C -170.534738 251.935995 0.000000
C -53.061359 -298.235388 0.000000
C -169.344131 251.162138 0.000000
C -168.078648 251.806306 0.000000
C -168.003772 253.224331 0.000000
C -166.738289 253.868498 0.000000
C -165.547681 253.094642 0.000000
C -164.282198 253.738809 0.000000
C -164.207322 255.156834 0.000000
C -162.941839 255.801002 0.000000
C 110.592120 294.246729 0.000000
C 113.021053 293.860097 0.000000
C 112.797831 292.457752 0.000000
C 113.900686 291.563263 0.000000
C 115.226764 292.071120 0.000000
C 116.329619 291.176632 0.000000
C 116.106397 289.774286 0.000000
C 117.209253 288.879798 0.000000
C 118.535330 289.387654 0.000000
C 119.638186 288.493166 0.000000
C 119.414964 287.090821 0.000000
C 120.517819 286.196332 0.000000
C 121.843897 286.704189 0.000000
C 122.946752 285.809700 0.000000
C 122.723530 284.407355 0.000000
C 123.826386 283.512867 0.000000
C 125.152463 284.020723 0.000000
C 126.255319 283.126235 0.000000
C 126.032097 281.723890 0.000000
C 127.134952 280.829401 0.000000
C 128.461030 281.337258 0.000000
C 129.563885 280.442769 0.000000
C 129.340663 279.040424 0.000000
C 130.443519 278.145935 0.000000
C 131.769596 278.653792 0.000000
C 132.872452 277.759303 0.000000
C 132.649230 276.356958 0.000000
C 135.078163 275.970326 0.000000
C 136.181018 275.075838 0.000000
C 138.386729 273.286861 0.000000
C 139.489585 272.392372 0.000000
C 141.695296 270.603395 0.000000
C 142.798151 269.708907 0.000000
C 145.003862 267.919930 0.000000
C 146.106718 267.025441 0.000000
C 148.312429 265.236464 0.000000
C -179.617749 243.172747 0.000000
C -178.352266 243.816915 0.000000
C -178.277390 245.234939 0.000000
C -177.011907 245.879107 0.000000
C -175.821299 245.105250 0.000000
C -174.555816 245.749418 0.000000
C -174.480940 247.167442 0.000000
C -47.949472 -298.521418 0.000000
C -173.215457 247.811610 0.000000
C -48.266476 -297.137254 0.000000
C -172.024850 247.037754 0.000000
C -49.623698 -296.719706 0.000000
C -170.759366 247.681921 0.000000
C -50.663917 -297.686321 0.000000
C -170.684490 249.099946 0.000000
C -52.021140 -297.268773 0.000000
C -169.419007 249.744114 0.000000
C -52.338144 -295.884609 0.000000
C -168.228400 248.970257 0.000000
C -53.695366 -295.467061 0.000000
C -166.962917 249.614425 0.000000
C -54.735585 -296.433676 0.000000
C -166.888041 251.032449 0.000000
C -56.092808 -296.016128 0.000000
C -165.622557 251.676617 0.000000
C -56.409812 -294.631964 0.000000
C -164.431950 250.902760 0.000000
C -57.767034 -294.214416 0.000000
C -163.166467 251.546928 0.000000
C -58.807253 -295.181031 0.000000
C -163.091591 252.964953 0.000000
C -60.164476 -294.763483 0.000000
C -161.826108 253.609120 0.000000
C -60.481480 -293.379320 0.000000
C -61.838703 -292.961771 0.000000
C -62.878921 -293.928386 0.000000
C -64.236144 -293.510838 0.000000
C -64.553148 -292.126675 0.000000
C -65.910371 -291.709126 0.000000
C -66.950589 -292.675742 0.000000
C -68.307812 -292.258193 0.000000
C -68.624816 -290.874030 0.000000
C -69.982039 -290.456481 0.000000
C -72.696484 -289.621385 0.000000
C -74.053707 -289.203837 0.000000
C -76.768152 -288.368740 0.000000
C -78.125375 -287.951192 0.000000
C -80.839820 -287.116095 0.000000
C -82.197043 -286.698547 0.000000
C 108.163187 294.633361 0.000000
C -179.692625 241.754722 0.000000
C -178.502018 240.980865 0.000000
C -177.236534 241.625033 0.000000
C -177.161659 243.043058 0.000000
C -175.896175 243.687226 0.000000
C -174.705568 242.913369 0.000000
C -44.828815 -295.621572 0.000000
C -173.440085 243.557537 0.000000
C -45.869034 -296.588187 0.000000
C -173.365209 244.975561 0.000000
C -47.226257 -296.170639 0.000000
C -172.099726 245.619729 0.000000
C -47.543261 -294.786476 0.000000
C -170.909118 244.845872 0.000000
C -48.900484 -294.368927 0.000000
C -169.643635 245.490040 0.000000
C -49.940702 -295.335542 0.000000
C -169.568759 246.908065 0.000000
C -51.297925 -294.917994 0.000000
C -168.303276 247.552232 0.000000
C -51.614929 -293.533831 0.000000
C -167.112668 246.778376 0.000000
C -52.972152 -293.116282 0.000000
C -165.847185 247.422543 0.000000
C -54.012370 -294.082898 0.000000
C -165.772309 248.840568 0.000000
C -55.369593 -293.665349 0.000000
C -164.506826 249.484736 0.000000
C -55.686597 -292.281186 0.000000
C -163.316219 248.710879 0.000000
C -57.043820 -291.863637 0.000000
C -162.050736 249.355047 0.000000
C -58.084038 -292.830253 0.000000
C -161.975860 250.773071 0.000000
C -59.441261 -292.412704 0.000000
C -59.758265 -291.028541 0.000000
C -61.115488 -290.610993 0.000000
C -62.155706 -291.577608 0.000000
C -63.512929 -291.160059 0.000000
C -63.829933 -289.775896 0.000000
C -65.187156 -289.358348 0.000000
C -66.227375 -290.324963 0.000000
C -67.584597 -289.907415 0.000000
C -67.901601 -288.523251 0.000000
C -69.258824 -288.105703 0.000000
C -70.299043 -289.072318 0.000000
C -71.656265 -288.654770 0.000000
C -71.973269 -287.270606 0.000000
C -73.330492 -286.853058 0.000000
C -74.370711 -287.819673 0.000000
C -75.727933 -287.402125 0.000000
C -76.044937 -286.017961 0.000000
C -77.402160 -285.600413 0.000000
C -78.442379 -286.567028 0.000000
C -79.799601 -286.149480 0.000000
C -80.116605 -284.765316 0.000000
C -81.473828 -284.347768 0.000000
C -82.514047 -285.314383 0.000000
C -83.871269 -284.896835 0.000000
C -84.188273 -283.512671 0.000000
C -85.545496 -283.095123 0.000000
C -86.585715 -284.061738 0.000000
C -87.942937 -283.644190 0.000000
C -88.259941 -282.260027 0.000000
C -89.617164 -281.842478 0.000000
C -90.657383 -282.809093 0.000000
C -92.014606 -282.391545 0.000000
C -92.331609 -281.007382 0.000000
C -93.688832 -280.589833 0.000000
C -94.729051 -281.556449 0.000000
C -96.086274 -281.138900 0.000000
C -96.403277 -279.754737 0.000000
C -97.760500 -279.337188 0.000000
C -100.474946 -278.502092 0.000000
C -101.832168 -278.084544 0.000000
C -104.546614 -277.249447 0.000000
C -105.903836 -276.831899 0.000000
C -108.618282 -275.996802 0.000000
C -179.917253 237.500649 0.000000
C -179.842377 238.918673 0.000000
C -178.576894 239.562841 0.000000
C -177.386286 238.788984 0.000000
C -176.120803 239.433152 0.000000
C -176.045927 240.851177 0.000000
C -42.431374 -295.072505 0.000000
C -174.780444 241.495344 0.000000
C -42.748378 -293.688342 0.000000
C -173.589837 240.721488 0.000000
C -44.105601 -293.270794 0.000000
C -172.324353 241.365655 0.000000
C -45.145819 -294.237409 0.000000
C -172.249477 242.783680 0.000000
C -46.503042 -293.819860 0.000000
C -170.983994 243.427848 0.000000
C -46.820046 -292.435697 0.000000
C -169.793387 242.653991 0.000000
C -48.177269 -292.018149 0.000000
C -168.527904 243.298159 0.000000
C -49.217487 -292.984764 0.000000
C -168.453028 244.716183 0.000000
C -50.574710 -292.567216 0.000000
C -167.187544 245.360351 0.000000
C -50.891714 -291.183052 0.000000
C -165.996937 244.586494 0.000000
C -52.248937 -290.765504 0.000000
C -164.731454 245.230662 0.000000
C -53.289155 -291.732119 0.000000
C -164.656578 246.648687 0.000000
C -54.646378 -291.314571 0.000000
C -163.391095 247.292854 0.000000
C -54.963382 -289.930407 0.000000
C -162.200487 246.518998 0.000000
C -56.320605 -289.512859 0.000000
C -160.935004 247.163166 0.000000
C -57.360824 -290.479474 0.000000
C -160.860128 248.581190 0.000000
C -58.718046 -290.061926 0.000000
C -59.035050 -288.677762 0.000000
C -60.392273 -288.260214 0.000000
C -61.432492 -289.226829 0.000000
C -62.789714 -288.809281 0.000000
C -63.106718 -287.425117 0.000000
C -64.463941 -287.007569 0.000000
C -65.504160 -287.974184 0.000000
C -66.861382 -287.556636 0.000000
C -67.178386 -286.172472 0.000000
C -68.535609 -285.754924 0.000000
C -69.575828 -286.721539 0.000000
C -70.933050 -286.303991 0.000000
C -71.250054 -284.919828 0.000000
C -72.607277 -284.502279 0.000000
C -73.647496 -285.468894 0.000000
C -75.004718 -285.051346 0.000000
C -75.321722 -283.667183 0.000000
C -76.678945 -283.249634 0.000000
C -77.719164 -284.216250 0.000000
C -79.076386 -283.798701 0.000000
C -79.393390 -282.414538 0.000000
C -80.750613 -281.996989 0.000000
C -81.790832 -282.963605 0.000000
C -83.148055 -282.546056 0.000000
C -83.465058 -281.161893 0.000000
C -84.822281 -280.744345 0.000000
C -85.862500 -281.710960 0.000000
C -87.219723 -281.293411 0.000000
C -87.536727 -279.909248 0.000000
C -88.893949 -279.491700 0.000000
C -89.934168 -280.458315 0.000000
C -91.291391 -280.040766 0.000000
C -91.608395 -278.656603 0.000000
C -92.965617 -278.239055 0.000000
C -94.005836 -279.205670 0.000000
C -95.363059 -278.788122 0.000000
C -95.680063 -277.403958 0.000000
C -97.037285 -276.986410 0.000000
C -98.077504 -277.953025 0.000000
C -99.434727 -277.535477 0.000000
C -99.751731 -276.151313 0.000000
C -101.108953 -275.733765 0.000000
C -102.149172 -276.700380 0.000000
C -103.506395 -276.282832 0.000000
C -103.823399 -274.898668 0.000000
C -105.180621 -274.481120 0.000000
C -106.220840 -275.447735 0.000000
C -107.578063 -275.030187 0.000000
C -178.801522 235.308767 0.000000
C -178.726646 236.726792 0.000000
C -177.461162 237.370960 0.000000
C -176.270555 236.597103 0.000000
C -39.310718 -292.172660 0.000000
C -175.005072 237.241271 0.000000
C -40.350936 -293.139275 0.000000
C -174.930196 238.659295 0.000000
C -41.708159 -292.721727 0.000000
C -173.664713 239.303463 0.000000
C -42.025163 -291.337563 0.000000
C -172.474105 238.529606 0.000000
C -43.382386 -290.920015 0.000000
C -171.208622 239.173774 0.000000
C -44.422604 -291.886630 0.000000
C -171.133746 240.591799 0.000000
C -45.779827 -291.469082 0.000000
C -169.868263 241.235966 0.000000
C -46.096831 -290.084918 0.000000
C -168.677656 240.462110 0.000000
C -47.454054 -289.667370 0.000000
C -167.412172 241.106277 0.000000
C -48.494273 -290.633985 0.000000
C -167.337296 242.524302 0.000000
C -49.851495 -290.216437 0.000000
C -166.071813 243.168470 0.000000
C -50.168499 -288.832273 0.000000
C -164.881206 242.394613 0.000000
C -51.525722 -288.414725 0.000000
C -163.615723 243.038781 0.000000
C -52.565941 -289.381340 0.000000
C -163.540847 244.456805 0.000000
C -53.923163 -288.963792 0.000000
C -162.275363 245.100973 0.000000
C -54.240167 -287.579628 0.000000
C -161.084756 244.327116 0.000000
C -55.597390 -287.162080 0.000000
C -159.819273 244.971284 0.000000
C -56.637609 -288.128695 0.000000
C -159.744397 246.389309 0.000000
C -57.994831 -287.711147 0.000000
C -58.311835 -286.326984 0.000000
C -59.669058 -285.909435 0.000000
C -60.709277 -286.876050 0.000000
C -62.066499 -286.458502 0.000000
C -62.383503 -285.074339 0.000000
C -63.740726 -284.656790 0.000000
C -64.780945 -285.623406 0.000000
C -66.138167 -285.205857 0.000000
C -66.455171 -283.821694 0.000000
C -67.812394 -283.404145 0.000000
C -68.852613 -284.370761 0.000000
C -70.209836 -283.953212 0.000000
C -70.526839 -282.569049 0.000000
C -71.884062 -282.151501 0.000000
C -72.924281 -283.118116 0.000000
C -74.281504 -282.700567 0.000000
C -74.598507 -281.316404 0.000000
C -75.955730 -280.898856 0.000000
C -76.995949 -281.865471 0.000000
C -78.353172 -281.447923 0.000000
C -78.670176 -280.063759 0.000000
C -80.027398 -279.646211 0.000000
C -81.067617 -280.612826 0.000000
C -82.424840 -280.195278 0.000000
C -82.741844 -278.811114 0.000000
C -84.099066 -278.393566 0.000000
C -85.139285 -279.360181 0.000000
C -86.496508 -278.942633 0.000000
C -86.813512 -277.558469 0.000000
C -88.170734 -277.140921 0.000000
C -89.210953 -278.107536 0.000000
C -90.568176 -277.689988 0.000000
C -90.885180 -276.305824 0.000000
C -92.242402 -275.888276 0.000000
C -93.282621 -276.854891 0.000000
C -94.639844 -276.437343 0.000000
C -94.956848 -275.053179 0.000000
C -96.314070 -274.635631 0.000000
C -97.354289 -275.602246 0.000000
C -98.711512 -275.184698 0.000000
C -99.028516 -273.800535 0.000000
C -100.385738 -273.382986 0.000000
C -101.425957 -274.349601 0.000000
C -102.783180 -273.932053 0.000000
C -103.100184 -272.547890 0.000000
C -104.457407 -272.130341 0.000000
C -105.497625 -273.096957 0.000000
C -178.951273 232.472718 0.000000
C -177.685790 233.116886 0.000000
C -177.610914 234.534911 0.000000
C -36.913276 -291.623593 0.000000
C -176.345431 235.179078 0.000000
C -37.230280 -290.239429 0.000000
C -175.154824 234.405222 0.000000
C -38.587503 -289.821881 0.000000
C -173.889340 235.049389 0.000000
C -39.627722 -290.788496 0.000000
C -173.814464 236.467414 0.000000
C -40.984944 -290.370948 0.000000
C -172.548981 237.111582 0.000000
C -41.301948 -288.986785 0.000000
C -171.358374 236.337725 0.000000
C -42.659171 -288.569236 0.000000
C -170.092891 236.981893 0.000000
C -43.699390 -289.535851 0.000000
C -170.018015 238.399917 0.000000
C -45.056612 -289.118303 0.000000
C -168.752531 239.044085 0.000000
C -45.373616 -287.734140 0.000000
C -167.561924 238.270228 0.000000
C -46.730839 -287.316591 0.000000
C -166.296441 238.914396 0.000000
C -47.771058 -288.283207 0.000000
C -166.221565 240.332421 0.000000
C -49.128280 -287.865658 0.000000
C -164.956082 240.976589 0.000000
C -49.445284 -286.481495 0.000000
C -163.765474 240.202732 0.000000
C -50.802507 -286.063946 0.000000
C -162.499991 240.846900 0.000000
C -51.842726 -287.030562 0.000000
C -162.425115 242.264924 0.000000
C -53.199948 -286.613013 0.000000
C -161.159632 242.909092 0.000000
C -53.516952 -285.228850 0.000000
C -159.969025 242.135235 0.000000
C -54.874175 -284.811302 0.000000
C -158.703541 242.779403 0.000000
C -55.914394 -285.777917 0.000000
C -57.271616 -285.360368 0.000000
C -57.588620 -283.976205 0.000000
C -58.945843 -283.558657 0.000000
C -59.986062 -284.525272 0.000000
C -61.343285 -284.107724 0.000000
C -61.660288 -282.723560 0.000000
C -63.017511 -282.306012 0.000000
C -64.057730 -283.272627 0.000000
C -65.414953 -282.855079 0.000000
C -65.731956 -281.470915 0.000000
C -67.089179 -281.053367 0.000000
C -68.129398 -282.019982 0.000000
C -69.486621 -281.602434 0.000000
C -69.803625 -280.218270 0.000000
C -71.160847 -279.800722 0.000000
C -72.201066 -280.767337 0.000000
C -73.558289 -280.349789 0.000000
C -73.875293 -278.965625 0.000000
C -75.232515 -278.548077 0.000000
C -76.272734 -279.514692 0.000000
C -77.629957 -279.097144 0.000000
C -77.946961 -277.712980 0.000000
C -79.304183 -277.295432 0.000000
C -80.344402 -278.262047 0.000000
C -81.701625 -277.844499 0.000000
C -82.018629 -276.460336 0.000000
C -83.375851 -276.042787 0.000000
C -84.416070 -277.009402 0.000000
C -85.773293 -276.591854 0.000000
C -86.090297 -275.207691 0.000000
C -87.447519 -274.790142 0.000000
C -88.487738 -275.756757 0.000000
C -89.844961 -275.339209 0.000000
C -90.161965 -273.955046 0.000000
C -91.519187 -273.537497 0.000000
C -92.559406 -274.504113 0.000000
C -93.916629 -274.086564 0.000000
C -94.233633 -272.702401 0.000000
C -95.590856 -272.284853 0.000000
C -96.631074 -273.251468 0.000000
C -97.988297 -272.833919 0.000000
C -98.305301 -271.449756 0.000000
C -99.662524 -271.032208 0.000000
C -100.702742 -271.998823 0.000000
C -102.059965 -271.581274 0.000000
C -102.376969 -270.197111 0.000000
C -179.026149 231.054694 0.000000
C -177.835542 230.280837 0.000000
C -33.792620 -288.723747 0.000000
C -176.570059 230.925005 0.000000
C -34.832839 -289.690363 0.000000
C -176.495183 232.343029 0.000000
C -36.190061 -289.272814 0.000000
C -175.229700 232.987197 0.000000
C -36.507065 -287.888651 0.000000
C -174.039092 232.213340 0.000000
C -37.864288 -287.471103 0.000000
C -172.773609 232.857508 0.000000
C -38.904507 -288.437718 0.000000
C -172.698733 234.275533 0.000000
C -40.261729 -288.020169 0.000000
C -171.433250 234.919700 0.000000
C -40.578733 -286.636006 0.000000
C -170.242643 234.145844 0.000000
C -41.935956 -286.218458 0.000000
C -168.977159 234.790012 0.000000
C -42.976175 -287.185073 0.000000
C -168.902283 236.208036 0.000000
C -44.333397 -286.767524 0.000000
C -167.636800 236.852204 0.000000
C -44.650401 -285.383361 0.000000
C -166.446193 236.078347 0.000000
C -46.007624 -284.965813 0.000000
C -165.180710 236.722515 0.000000
C -47.047843 -285.932428 0.000000
C -165.105834 238.140539 0.000000
C -48.405065 -285.514880 0.000000
C -163.840350 238.784707 0.000000
C -48.722069 -284.130716 0.000000
C -162.649743 238.010851 0.000000
C -50.079292 -283.713168 0.000000
C -161.384260 238.655018 0.000000
C -51.119511 -284.679783 0.000000
C -161.309384 240.073043 0.000000
C -52.476734 -284.262235 0.000000
C -160.043901 240.717211 0.000000
C -52.793737 -282.878071 0.000000
C -158.853293 239.943354 0.000000
C -54.150960 -282.460523 0.000000
C -55.191179 -283.427138 0.000000
C -56.548402 -283.009590 0.000000
C -56.865406 -281.625426 0.000000
C -58.222628 -281.207878 0.000000
C -59.262847 -282.174493 0.000000
C -60.620070 -281.756945 0.000000
C -60.937074 -280.372781 0.000000
C -62.294296 -279.955233 0.000000
C -63.334515 -280.921848 0.000000
C -64.691738 -280.504300 0.000000
C -65.008742 -279.120136 0.000000
C -66.365964 -278.702588 0.000000
C -67.406183 -279.669203 0.000000
C -68.763406 -279.251655 0.000000
C -69.080410 -277.867492 0.000000
C -70.437632 -277.449943 0.000000
C -71.477851 -278.416558 0.000000
C -72.835074 -277.999010 0.000000
C -73.152078 -276.614847 0.000000
C -74.509300 -276.197298 0.000000
C -75.549519 -277.163914 0.000000
C -76.906742 -276.746365 0.000000
C -77.223746 -275.362202 0.000000
C -78.580968 -274.944653 0.000000
C -79.621187 -275.911269 0.000000
C -80.978410 -275.493720 0.000000
C -81.295414 -274.109557 0.000000
C -82.652637 -273.692009 0.000000
C -83.692855 -274.658624 0.000000
C -85.050078 -274.241075 0.000000
C -85.367082 -272.856912 0.000000
C -86.724305 -272.439364 0.000000
C -87.764523 -273.405979 0.000000
C -89.121746 -272.988431 0.000000
C -89.438750 -271.604267 0.000000
C -90.795973 -271.186719 0.000000
C -91.836191 -272.153334 0.000000
C -93.193414 -271.735786 0.000000