112000
Atoms. Timestep: 0
C 150.096 359.742 0.0264108
C -164.7 357.028 0.0740119
C -163.402 356.453 0.0740119
C -162.255 357.29 0.0740119
C -162.406 358.702 0.0740119
C -161.258 359.538 0.0740119
C -159.96 358.963 0.0740119
C 147.581 358.422 0.0264108
C 148.781 357.663 0.0264108
C 150.039 358.323 0.0264108
C -163.251 355.041 0.0740119
C -161.952 354.466 0.0740119
C -160.805 355.303 0.0740119
C -160.956 356.714 0.0740119
C -159.809 357.551 0.0740119
C -158.511 356.976 0.0740119
C -157.363 357.813 0.0740119
C 142.666 358.62 0.0264108
C 143.866 357.861 0.0264108
C 145.124 358.521 0.0264108
C 146.324 357.762 0.0264108
C 146.267 356.343 0.0264108
C -161.801 353.054 0.0740119
C -160.503 352.479 0.0740119
C -159.356 353.315 0.0740119
C -159.507 354.727 0.0740119
C -158.36 355.564 0.0740119
C -157.061 354.989 0.0740119
C -155.914 355.826 0.0740119
C -156.065 357.238 0.0740119
C -154.918 358.075 0.0740119
C -153.62 357.499 0.0740119
C -152.472 358.336 0.0740119
C 137.751 358.817 0.0264108
C 138.951 358.059 0.0264108
C 140.209 358.719 0.0264108
C 141.409 357.96 0.0264108
C 141.352 356.541 0.0264108
C 142.552 355.782 0.0264108
C 143.809 356.442 0.0264108
C 145.009 355.683 0.0264108
C 144.952 354.264 0.0264108
C 146.153 353.505 0.0264108
C 147.41 354.165 0.0264108
C -161.348 348.818 0.0740119
C -160.352 351.067 0.0740119
C -159.054 350.492 0.0740119
C -157.906 351.328 0.0740119
C -158.057 352.74 0.0740119
C -156.91 353.577 0.0740119
C -155.612 353.002 0.0740119
C -154.465 353.839 0.0740119
C -154.616 355.251 0.0740119
C -153.469 356.087 0.0740119
C -152.17 355.512 0.0740119
C -151.023 356.349 0.0740119
C -151.174 357.761 0.0740119
C -150.027 358.598 0.0740119
C -148.728 358.023 0.0740119
C -147.581 358.86 0.0740119
C 132.836 359.015 0.0264108
C 134.036 358.256 0.0264108
C 135.293 358.916 0.0264108
C 136.494 358.157 0.0264108
C 136.437 356.739 0.0264108
C 137.637 355.98 0.0264108
C 138.894 356.64 0.0264108
C 140.094 355.881 0.0264108
C 140.037 354.462 0.0264108
C 141.238 353.703 0.0264108
C 142.495 354.363 0.0264108
C 143.695 353.604 0.0264108
C 143.638 352.185 0.0264108
C -160.05 348.243 0.0740119
C -158.903 349.08 0.0740119
C -157.604 348.504 0.0740119
C -156.457 349.341 0.0740119
C -156.608 350.753 0.0740119
C -155.461 351.59 0.0740119
C -154.163 351.015 0.0740119
C -153.015 351.852 0.0740119
C -153.166 353.264 0.0740119
C -152.019 354.1 0.0740119
C -150.721 353.525 0.0740119
C -149.574 354.362 0.0740119
C -149.725 355.774 0.0740119
C -148.577 356.611 0.0740119
C -147.279 356.036 0.0740119
C -146.132 356.872 0.0740119
C -146.283 358.284 0.0740119
C -145.136 359.121 0.0740119
C -143.837 358.546 0.0740119
C -142.69 359.383 0.0740119
C 127.921 359.213 0.0264108
C 129.121 358.454 0.0264108
C 130.378 359.114 0.0264108
C 131.579 358.355 0.0264108
C 131.522 356.936 0.0264108
C 132.722 356.177 0.0264108
C 133.979 356.837 0.0264108
C 135.179 356.079 0.0264108
C 135.122 354.66 0.0264108
C 136.323 353.901 0.0264108
C 137.58 354.561 0.0264108
C 138.78 353.802 0.0264108
C 138.723 352.383 0.0264108
C 139.923 351.624 0.0264108
C 141.18 352.284 0.0264108
C 142.381 351.525 0.0264108
C 142.324 350.107 0.0264108
C -159.597 344.007 0.0740119
C -158.449 344.844 0.0740119
C -158.6 346.256 0.0740119
C -157.453 347.093 0.0740119
C -156.155 346.517 0.0740119
C -155.008 347.354 0.0740119
C -155.159 348.766 0.0740119
C -154.011 349.603 0.0740119
C -152.713 349.028 0.0740119
C -151.566 349.865 0.0740119
C -151.717 351.276 0.0740119
C -150.57 352.113 0.0740119
C -149.271 351.538 0.0740119
C -148.124 352.375 0.0740119
C -148.275 353.787 0.0740119
C -147.128 354.624 0.0740119
C -145.83 354.049 0.0740119
C -144.682 354.885 0.0740119
C -144.834 356.297 0.0740119
C -143.686 357.134 0.0740119
C -142.388 356.559 0.0740119
C -141.241 357.396 0.0740119
C -141.392 358.808 0.0740119
C -140.245 359.644 0.0740119
C -138.946 359.069 0.0740119
C 123.006 359.41 0.0264108
C 124.206 358.652 0.0264108
C 125.463 359.312 0.0264108
C 126.664 358.553 0.0264108
C 126.607 357.134 0.0264108
C 127.807 356.375 0.0264108
C 129.064 357.035 0.0264108
C 130.264 356.276 0.0264108
C 130.207 354.857 0.0264108
C 131.407 354.098 0.0264108
C 132.665 354.758 0.0264108
C 133.865 354 0.0264108
C 133.808 352.581 0.0264108
C 135.008 351.822 0.0264108
C 136.265 352.482 0.0264108
C 137.466 351.723 0.0264108
C 137.409 350.304 0.0264108
C 138.609 349.545 0.0264108
C 139.866 350.205 0.0264108
C 141.066 349.447 0.0264108
C 141.009 348.028 0.0264108
C 142.21 347.269 0.0264108
C -159.446 342.595 0.0740119
C -158.147 342.02 0.0740119
C -157 342.857 0.0740119
C -157.151 344.269 0.0740119
C -156.004 345.105 0.0740119
C -154.706 344.53 0.0740119
C -153.558 345.367 0.0740119
C -153.709 346.779 0.0740119
C -152.562 347.616 0.0740119
C -151.264 347.041 0.0740119
C -150.117 347.877 0.0740119
C -150.268 349.289 0.0740119
C -149.12 350.126 0.0740119
C -147.822 349.551 0.0740119
C -146.675 350.388 0.0740119
C -146.826 351.8 0.0740119
C -145.679 352.637 0.0740119
C -144.38 352.061 0.0740119
C -143.233 352.898 0.0740119
C -143.384 354.31 0.0740119
C -142.237 355.147 0.0740119
C -140.939 354.572 0.0740119
C -139.791 355.409 0.0740119
C -139.942 356.821 0.0740119
C -138.795 357.657 0.0740119
C -137.497 357.082 0.0740119
C -136.35 357.919 0.0740119
C 118.091 359.608 0.0264108
C 119.291 358.849 0.0264108
C 120.548 359.509 0.0264108
C 121.749 358.75 0.0264108
C 121.691 357.332 0.0264108
C 122.892 356.573 0.0264108
C 124.149 357.233 0.0264108
C 125.349 356.474 0.0264108
C 125.292 355.055 0.0264108
C 126.492 354.296 0.0264108
C 127.75 354.956 0.0264108
C 128.95 354.197 0.0264108
C 128.893 352.778 0.0264108
C 130.093 352.02 0.0264108
C 131.35 352.68 0.0264108
C 132.551 351.921 0.0264108
C 132.494 350.502 0.0264108
C 133.694 349.743 0.0264108
C 134.951 350.403 0.0264108
C 136.151 349.644 0.0264108
C 136.094 348.225 0.0264108
C 137.294 347.467 0.0264108
C 138.552 348.127 0.0264108
C 139.752 347.368 0.0264108
C 139.695 345.949 0.0264108
C 140.895 345.19 0.0264108
C -158.992 338.359 0.0740119
C -157.996 340.608 0.0740119
C -156.698 340.033 0.0740119
C -155.551 340.87 0.0740119
C -155.702 342.282 0.0740119
C -154.554 343.118 0.0740119
C -153.256 342.543 0.0740119
C -152.109 343.38 0.0740119
C -152.26 344.792 0.0740119
C -151.113 345.629 0.0740119
C -149.814 345.054 0.0740119
C -148.667 345.89 0.0740119
C -148.818 347.302 0.0740119
C -147.671 348.139 0.0740119
C -146.373 347.564 0.0740119
C -145.225 348.401 0.0740119
C -145.377 349.813 0.0740119
C -144.229 350.65 0.0740119
C -142.931 350.074 0.0740119
C -141.784 350.911 0.0740119
C -141.935 352.323 0.0740119
C -140.788 353.16 0.0740119
C -139.489 352.585 0.0740119
C -138.342 353.422 0.0740119
C -138.493 354.833 0.0740119
C -137.346 355.67 0.0740119
C -136.048 355.095 0.0740119
C -134.9 355.932 0.0740119
C -135.051 357.344 0.0740119
C 113.176 359.806 0.0264108
C 114.376 359.047 0.0264108
C 115.633 359.707 0.0264108
C 116.834 358.948 0.0264108
C 116.776 357.529 0.0264108
C 117.977 356.77 0.0264108
C 119.234 357.43 0.0264108
C 120.434 356.672 0.0264108
C 120.377 355.253 0.0264108
C 121.577 354.494 0.0264108
C 122.835 355.154 0.0264108
C 124.035 354.395 0.0264108
C 123.978 352.976 0.0264108
C 125.178 352.217 0.0264108
C 126.435 352.877 0.0264108
C 127.636 352.118 0.0264108
C 127.579 350.7 0.0264108
C 128.779 349.941 0.0264108
C 130.036 350.601 0.0264108
C 131.236 349.842 0.0264108
C 131.179 348.423 0.0264108
C 132.379 347.664 0.0264108
C 133.637 348.324 0.0264108
C 134.837 347.565 0.0264108
C 134.78 346.147 0.0264108
C 135.98 345.388 0.0264108
C 137.237 346.048 0.0264108
C 138.438 345.289 0.0264108
C 138.381 343.87 0.0264108
C 139.581 343.111 0.0264108
C -157.694 337.784 0.0740119
C -156.547 338.621 0.0740119
C -155.249 338.046 0.0740119
C -154.101 338.883 0.0740119
C -154.252 340.294 0.0740119
C -153.105 341.131 0.0740119
C -151.807 340.556 0.0740119
C -150.66 341.393 0.0740119
C -150.811 342.805 0.0740119
C -149.663 343.642 0.0740119
C -148.365 343.066 0.0740119
C -147.218 343.903 0.0740119
C -147.369 345.315 0.0740119
C -146.222 346.152 0.0740119
C -144.923 345.577 0.0740119
C -143.776 346.414 0.0740119
C -143.927 347.826 0.0740119
C -142.78 348.662 0.0740119
C -141.482 348.087 0.0740119
C -140.334 348.924 0.0740119
C -140.485 350.336 0.0740119
C -139.338 351.173 0.0740119
C -138.04 350.598 0.0740119
C -136.893 351.434 0.0740119
C -137.044 352.846 0.0740119
C -135.896 353.683 0.0740119
C -134.598 353.108 0.0740119
C -133.451 353.945 0.0740119
C -133.602 355.357 0.0740119
C 111.918 359.146 0.0264108
C 111.861 357.727 0.0264108
C 113.062 356.968 0.0264108
C 114.319 357.628 0.0264108
C 115.519 356.869 0.0264108
C 115.462 355.45 0.0264108
C 116.662 354.692 0.0264108
C 117.92 355.352 0.0264108
C 119.12 354.593 0.0264108
C 119.063 353.174 0.0264108
C 120.263 352.415 0.0264108
C 121.52 353.075 0.0264108
C 122.721 352.316 0.0264108
C 122.663 350.897 0.0264108
C 123.864 350.138 0.0264108
C 125.121 350.798 0.0264108
C 126.321 350.04 0.0264108
C 126.264 348.621 0.0264108
C 127.464 347.862 0.0264108
C 128.722 348.522 0.0264108
C 129.922 347.763 0.0264108
C 129.865 346.344 0.0264108
C 131.065 345.585 0.0264108
C 132.322 346.245 0.0264108
C 133.523 345.487 0.0264108
C 133.466 344.068 0.0264108
C 134.666 343.309 0.0264108
C 135.923 343.969 0.0264108
C 137.123 343.21 0.0264108
C 137.066 341.791 0.0264108
C 138.266 341.032 0.0264108
C -156.094 334.385 0.0740119
C -156.245 335.797 0.0740119
C -155.097 336.634 0.0740119
C -153.799 336.059 0.0740119
C -152.652 336.895 0.0740119
C -152.803 338.307 0.0740119
C -151.656 339.144 0.0740119
C -150.357 338.569 0.0740119
C -149.21 339.406 0.0740119
C -149.361 340.818 0.0740119
C -148.214 341.655 0.0740119
C -146.916 341.079 0.0740119
C -145.768 341.916 0.0740119
C -145.92 343.328 0.0740119
C -144.772 344.165 0.0740119
C -143.474 343.59 0.0740119
C -142.327 344.427 0.0740119
C -142.478 345.839 0.0740119
C -141.331 346.675 0.0740119
C -140.032 346.1 0.0740119
C -138.885 346.937 0.0740119
C -139.036 348.349 0.0740119
C -137.889 349.186 0.0740119
C -136.59 348.611 0.0740119
C -135.443 349.447 0.0740119
C -135.594 350.859 0.0740119
C -134.447 351.696 0.0740119
C -133.149 351.121 0.0740119
C -132.002 351.958 0.0740119
C 106.946 357.925 0.0264108
C 108.147 357.166 0.0264108
C 109.404 357.826 0.0264108
C 110.604 357.067 0.0264108
C 110.547 355.648 0.0264108
C 111.747 354.889 0.0264108
C 113.005 355.549 0.0264108
C 114.205 354.79 0.0264108
C 114.148 353.372 0.0264108
C 115.348 352.613 0.0264108
C 116.605 353.273 0.0264108
C 117.805 352.514 0.0264108
C 117.748 351.095 0.0264108
C 118.949 350.336 0.0264108
C 120.206 350.996 0.0264108
C 121.406 350.237 0.0264108
C 121.349 348.818 0.0264108
C 122.549 348.06 0.0264108
C 123.807 348.72 0.0264108
C 125.007 347.961 0.0264108
C 124.95 346.542 0.0264108
C 126.15 345.783 0.0264108
C 127.407 346.443 0.0264108
C 128.608 345.684 0.0264108
C 128.55 344.265 0.0264108
C 129.751 343.507 0.0264108
C 131.008 344.167 0.0264108
C 132.208 343.408 0.0264108
C 132.151 341.989 0.0264108
C 133.351 341.23 0.0264108
C 134.609 341.89 0.0264108
C 135.809 341.131 0.0264108
C 135.752 339.712 0.0264108
C 136.952 338.953 0.0264108
C -154.644 332.398 0.0740119
C -154.795 333.81 0.0740119
C -153.648 334.647 0.0740119
C -152.35 334.072 0.0740119
C -151.203 334.908 0.0740119
C -151.354 336.32 0.0740119
C -150.206 337.157 0.0740119
C -148.908 336.582 0.0740119
C -147.761 337.419 0.0740119
C -147.912 338.831 0.0740119
C -146.765 339.667 0.0740119
C -145.466 339.092 0.0740119
C -144.319 339.929 0.0740119
C -144.47 341.341 0.0740119
C -143.323 342.178 0.0740119
C -142.025 341.603 0.0740119
C -140.877 342.44 0.0740119
C -141.028 343.851 0.0740119
C -139.881 344.688 0.0740119
C -138.583 344.113 0.0740119
C -137.436 344.95 0.0740119
C -137.587 346.362 0.0740119
C -136.439 347.199 0.0740119
C -135.141 346.623 0.0740119
C -133.994 347.46 0.0740119
C -134.145 348.872 0.0740119
C -132.998 349.709 0.0740119
C -131.699 349.134 0.0740119
C -130.552 349.971 0.0740119
C -130.703 351.383 0.0740119
C 102.031 358.122 0.0264108
C 103.232 357.363 0.0264108
C 104.489 358.023 0.0264108
C 105.689 357.265 0.0264108
C 105.632 355.846 0.0264108
C 106.832 355.087 0.0264108
C 108.09 355.747 0.0264108
C 109.29 354.988 0.0264108
C 109.233 353.569 0.0264108
C 110.433 352.81 0.0264108
C 111.69 353.47 0.0264108
C 112.89 352.712 0.0264108
C 112.833 351.293 0.0264108
C 114.034 350.534 0.0264108
C 115.291 351.194 0.0264108
C 116.491 350.435 0.0264108
C 116.434 349.016 0.0264108
C 117.634 348.257 0.0264108
C 118.892 348.917 0.0264108
C 120.092 348.158 0.0264108
C 120.035 346.74 0.0264108
C 121.235 345.981 0.0264108
C 122.492 346.641 0.0264108
C 123.692 345.882 0.0264108
C 123.635 344.463 0.0264108
C 124.836 343.704 0.0264108
C 126.093 344.364 0.0264108
C 127.293 343.605 0.0264108
C 127.236 342.186 0.0264108
C 128.436 341.428 0.0264108
C 129.694 342.088 0.0264108
C 130.894 341.329 0.0264108
C 130.837 339.91 0.0264108
C 132.037 339.151 0.0264108
C 133.294 339.811 0.0264108
C 134.495 339.052 0.0264108
C 134.437 337.633 0.0264108
C 135.638 336.875 0.0264108
C -153.195 330.411 0.0740119
C -153.346 331.823 0.0740119
C -152.199 332.66 0.0740119
C -150.9 332.084 0.0740119
C -149.753 332.921 0.0740119
C -149.904 334.333 0.0740119
C -148.757 335.17 0.0740119
C -147.459 334.595 0.0740119
C -146.311 335.432 0.0740119
C -146.462 336.844 0.0740119
C -145.315 337.68 0.0740119
C -144.017 337.105 0.0740119
C -142.87 337.942 0.0740119
C -143.021 339.354 0.0740119
C -141.874 340.191 0.0740119
C -140.575 339.616 0.0740119
C -139.428 340.452 0.0740119
C -139.579 341.864 0.0740119
C -138.432 342.701 0.0740119
C -137.133 342.126 0.0740119
C -135.986 342.963 0.0740119
C -136.137 344.375 0.0740119
C -134.99 345.212 0.0740119
C -133.692 344.636 0.0740119
C -132.544 345.473 0.0740119
C -132.696 346.885 0.0740119
C -131.548 347.722 0.0740119
C -130.25 347.147 0.0740119
C -129.103 347.984 0.0740119
C -129.254 349.396 0.0740119
C 97.1162 358.32 0.0264108
C 98.3165 357.561 0.0264108
C 99.5738 358.221 0.0264108
C 100.774 357.462 0.0264108
C 100.717 356.043 0.0264108
C 101.917 355.285 0.0264108
C 103.174 355.945 0.0264108
C 104.375 355.186 0.0264108
C 104.318 353.767 0.0264108
C 105.518 353.008 0.0264108
C 106.775 353.668 0.0264108
C 107.975 352.909 0.0264108
C 107.918 351.49 0.0264108
C 109.119 350.731 0.0264108
C 110.376 351.391 0.0264108
C 111.576 350.633 0.0264108
C 111.519 349.214 0.0264108
C 112.719 348.455 0.0264108
C 113.977 349.115 0.0264108
C 115.177 348.356 0.0264108
C 115.12 346.937 0.0264108
C 116.32 346.178 0.0264108
C 117.577 346.838 0.0264108
C 118.777 346.08 0.0264108
C 118.72 344.661 0.0264108
C 119.921 343.902 0.0264108
C 121.178 344.562 0.0264108
C 122.378 343.803 0.0264108
C 122.321 342.384 0.0264108
C 123.521 341.625 0.0264108
C 124.779 342.285 0.0264108
C 125.979 341.526 0.0264108
C 125.922 340.108 0.0264108
C 127.122 339.349 0.0264108
C 128.379 340.009 0.0264108
C 129.58 339.25 0.0264108
C 129.522 337.831 0.0264108
C 130.723 337.072 0.0264108
C 131.98 337.732 0.0264108
C 133.18 336.973 0.0264108
C -152.893 327.587 0.0740119
C -151.746 328.424 0.0740119
C -151.897 329.836 0.0740119
C -150.749 330.673 0.0740119
C -149.451 330.097 0.0740119
C -148.304 330.934 0.0740119
C -148.455 332.346 0.0740119
C -147.308 333.183 0.0740119
C -146.009 332.608 0.0740119
C -144.862 333.445 0.0740119
C -145.013 334.856 0.0740119
C -143.866 335.693 0.0740119
C -142.568 335.118 0.0740119
C -141.42 335.955 0.0740119
C -141.571 337.367 0.0740119
C -140.424 338.204 0.0740119
C -139.126 337.629 0.0740119
C -137.979 338.465 0.0740119
C -138.13 339.877 0.0740119
C -136.982 340.714 0.0740119
C -135.684 340.139 0.0740119
C -134.537 340.976 0.0740119
C -134.688 342.388 0.0740119
C -133.541 343.224 0.0740119
C -132.242 342.649 0.0740119
C -131.095 343.486 0.0740119
C -131.246 344.898 0.0740119
C -130.099 345.735 0.0740119
C -128.801 345.16 0.0740119
C -127.653 345.997 0.0740119
C -127.804 347.408 0.0740119
C 92.2012 358.518 0.0264108
C 93.4014 357.759 0.0264108
C 94.6587 358.419 0.0264108
C 95.8589 357.66 0.0264108
C 95.8019 356.241 0.0264108
C 97.0021 355.482 0.0264108
C 98.2594 356.142 0.0264108
C 99.4596 355.383 0.0264108
C 99.4026 353.965 0.0264108
C 100.603 353.206 0.0264108
C 101.86 353.866 0.0264108
C 103.06 353.107 0.0264108
C 103.003 351.688 0.0264108
C 104.203 350.929 0.0264108
C 105.461 351.589 0.0264108
C 106.661 350.83 0.0264108
C 106.604 349.411 0.0264108
C 107.804 348.653 0.0264108
C 109.061 349.313 0.0264108
C 110.262 348.554 0.0264108
C 110.205 347.135 0.0264108
C 111.405 346.376 0.0264108
C 112.662 347.036 0.0264108
C 113.862 346.277 0.0264108
C 113.805 344.858 0.0264108
C 115.006 344.1 0.0264108
C 116.263 344.76 0.0264108
C 117.463 344.001 0.0264108
C 117.406 342.582 0.0264108
C 118.606 341.823 0.0264108
C 119.864 342.483 0.0264108
C 121.064 341.724 0.0264108
C 121.007 340.305 0.0264108
C 122.207 339.546 0.0264108
C 123.464 340.206 0.0264108
C 124.664 339.448 0.0264108
C 124.607 338.029 0.0264108
C 125.808 337.27 0.0264108
C 127.065 337.93 0.0264108
C 128.265 337.171 0.0264108
C 128.208 335.752 0.0264108
C 129.408 334.993 0.0264108
C 130.666 335.653 0.0264108
C 131.866 334.895 0.0264108
C 131.809 333.476 0.0264108
C -153.738 323.926 0.0740119
C -153.889 325.338 0.0740119
C -152.742 326.175 0.0740119
C -151.443 325.6 0.0740119
C -150.296 326.437 0.0740119
C -150.447 327.849 0.0740119
C -149.3 328.685 0.0740119
C -148.002 328.11 0.0740119
C -146.854 328.947 0.0740119
C -147.005 330.359 0.0740119
C -145.858 331.196 0.0740119
C -144.56 330.621 0.0740119
C -143.413 331.457 0.0740119
C -143.564 332.869 0.0740119
C -142.416 333.706 0.0740119
C -141.118 333.131 0.0740119
C -139.971 333.968 0.0740119
C -140.122 335.38 0.0740119
C -138.975 336.217 0.0740119
C -137.676 335.641 0.0740119
C -136.529 336.478 0.0740119
C -136.68 337.89 0.0740119
C -135.533 338.727 0.0740119
C -134.235 338.152 0.0740119
C -133.087 338.989 0.0740119
C -133.239 340.401 0.0740119
C -132.091 341.237 0.0740119
C -130.793 340.662 0.0740119
C -129.646 341.499 0.0740119
C -129.797 342.911 0.0740119
C -128.65 343.748 0.0740119
C -127.351 343.173 0.0740119
C -126.204 344.009 0.0740119
C -126.355 345.421 0.0740119
C 87.2861 358.715 0.0264108
C 88.4864 357.956 0.0264108
C 89.7437 358.616 0.0264108
C 90.9439 357.858 0.0264108
C 90.8868 356.439 0.0264108
C 92.0871 355.68 0.0264108
C 93.3444 356.34 0.0264108
C 94.5446 355.581 0.0264108
C 94.4875 354.162 0.0264108
C 95.6877 353.403 0.0264108
C 96.945 354.063 0.0264108
C 98.1453 353.305 0.0264108
C 98.0882 351.886 0.0264108
C 99.2884 351.127 0.0264108
C 100.546 351.787 0.0264108
C 101.746 351.028 0.0264108
C 101.689 349.609 0.0264108
C 102.889 348.85 0.0264108
C 104.146 349.51 0.0264108
C 105.347 348.751 0.0264108
C 105.29 347.333 0.0264108
C 106.49 346.574 0.0264108
C 107.747 347.234 0.0264108
C 108.947 346.475 0.0264108
C 108.89 345.056 0.0264108
C 110.091 344.297 0.0264108
C 111.348 344.957 0.0264108
C 112.548 344.198 0.0264108
C 112.491 342.78 0.0264108
C 113.691 342.021 0.0264108
C 114.948 342.681 0.0264108
C 116.149 341.922 0.0264108
C 116.092 340.503 0.0264108
C 117.292 339.744 0.0264108
C 118.549 340.404 0.0264108
C 119.749 339.645 0.0264108
C 119.692 338.226 0.0264108
C 120.893 337.468 0.0264108
C 122.15 338.128 0.0264108
C 123.35 337.369 0.0264108
C 123.293 335.95 0.0264108
C 124.493 335.191 0.0264108
C 125.751 335.851 0.0264108
C 126.951 335.092 0.0264108
C 126.894 333.673 0.0264108
C 128.094 332.915 0.0264108
C 129.351 333.575 0.0264108
C 130.551 332.816 0.0264108
C -152.289 321.939 0.0740119
C -152.44 323.351 0.0740119
C -151.292 324.188 0.0740119
C -149.994 323.613 0.0740119
C -148.847 324.45 0.0740119
C -148.998 325.862 0.0740119
C -147.851 326.698 0.0740119
C -146.552 326.123 0.0740119
C -145.405 326.96 0.0740119
C -145.556 328.372 0.0740119
C -144.409 329.209 0.0740119
C -143.111 328.634 0.0740119
C -141.963 329.47 0.0740119
C -142.114 330.882 0.0740119
C -140.967 331.719 0.0740119
C -139.669 331.144 0.0740119
C -138.522 331.981 0.0740119
C -138.673 333.393 0.0740119
C -137.525 334.23 0.0740119
C -136.227 333.654 0.0740119
C -135.08 334.491 0.0740119
C -135.231 335.903 0.0740119
C -134.084 336.74 0.0740119
C -132.785 336.165 0.0740119
C -131.638 337.002 0.0740119
C -131.789 338.413 0.0740119
C -130.642 339.25 0.0740119
C -129.344 338.675 0.0740119
C -128.196 339.512 0.0740119
C -128.347 340.924 0.0740119
C -127.2 341.761 0.0740119
C -125.902 341.186 0.0740119
C -124.755 342.022 0.0740119
C -124.906 343.434 0.0740119
C 82.3711 358.913 0.0264108
C 83.5713 358.154 0.0264108
C 84.8286 358.814 0.0264108
C 86.0288 358.055 0.0264108
C 85.9718 356.636 0.0264108
C 87.172 355.878 0.0264108
C 88.4293 356.538 0.0264108
C 89.6295 355.779 0.0264108
C 89.5725 354.36 0.0264108
C 90.7727 353.601 0.0264108
C 92.03 354.261 0.0264108
C 93.2302 353.502 0.0264108
C 93.1732 352.083 0.0264108
C 94.3734 351.325 0.0264108
C 95.6307 351.985 0.0264108
C 96.8309 351.226 0.0264108
C 96.7738 349.807 0.0264108
C 97.9741 349.048 0.0264108
C 99.2314 349.708 0.0264108
C 100.432 348.949 0.0264108
C 100.375 347.53 0.0264108
C 101.575 346.771 0.0264108
C 102.832 347.431 0.0264108
C 104.032 346.673 0.0264108
C 103.975 345.254 0.0264108
C 105.175 344.495 0.0264108
C 106.433 345.155 0.0264108
C 107.633 344.396 0.0264108
C 107.576 342.977 0.0264108
C 108.776 342.218 0.0264108
C 110.033 342.878 0.0264108
C 111.234 342.12 0.0264108
C 111.177 340.701 0.0264108
C 112.377 339.942 0.0264108
C 113.634 340.602 0.0264108
C 114.834 339.843 0.0264108
C 114.777 338.424 0.0264108
C 115.978 337.665 0.0264108
C 117.235 338.325 0.0264108
C 118.435 337.566 0.0264108
C 118.378 336.148 0.0264108
C 119.578 335.389 0.0264108
C 120.836 336.049 0.0264108
C 122.036 335.29 0.0264108
C 121.979 333.871 0.0264108
C 123.179 333.112 0.0264108
C 124.436 333.772 0.0264108
C 125.636 333.013 0.0264108
C 125.579 331.595 0.0264108
C 126.78 330.836 0.0264108
C 128.037 331.496 0.0264108
C 129.237 330.737 0.0264108
C 129.18 329.318 0.0264108
C -151.986 319.115 0.0740119
C -150.839 319.952 0.0740119
C -150.99 321.364 0.0740119
C -149.843 322.201 0.0740119
C -148.545 321.626 0.0740119
C -147.397 322.463 0.0740119
C -147.548 323.874 0.0740119
C -146.401 324.711 0.0740119
C -145.103 324.136 0.0740119
C -143.956 324.973 0.0740119
C -144.107 326.385 0.0740119
C -142.959 327.222 0.0740119
C -141.661 326.646 0.0740119
C -140.514 327.483 0.0740119
C -140.665 328.895 0.0740119
C -139.518 329.732 0.0740119
C -138.219 329.157 0.0740119
C 10.5322 -357.175 0.0516932
C -137.072 329.994 0.0740119
C 10.1704 -358.548 0.0516932
C -137.223 331.406 0.0740119
C 8.80028 -358.921 0.0516932
C -136.076 332.242 0.0740119
C 7.79201 -357.921 0.0516932
C -134.778 331.667 0.0740119
C 6.42194 -358.294 0.0516932
C -133.63 332.504 0.0740119
C -133.782 333.916 0.0740119
C -132.634 334.753 0.0740119
C -131.336 334.178 0.0740119
C -130.189 335.014 0.0740119
C -130.34 336.426 0.0740119
C -129.193 337.263 0.0740119
C -127.894 336.688 0.0740119
C -126.747 337.525 0.0740119
C -126.898 338.937 0.0740119
C -125.751 339.774 0.0740119
C -124.452 339.198 0.0740119
C -123.305 340.035 0.0740119
C -123.456 341.447 0.0740119
C 77.456 359.111 0.0264108
C 78.6563 358.352 0.0264108
C 79.9136 359.012 0.0264108
C 81.1138 358.253 0.0264108
C 81.0567 356.834 0.0264108
C 82.257 356.075 0.0264108
C 83.5143 356.735 0.0264108
C 84.7145 355.976 0.0264108
C 84.6574 354.558 0.0264108
C 85.8576 353.799 0.0264108
C 87.1149 354.459 0.0264108
C 88.3152 353.7 0.0264108
C 88.2581 352.281 0.0264108
C 89.4583 351.522 0.0264108
C 90.7156 352.182 0.0264108
C 91.9159 351.423 0.0264108
C 91.8588 350.005 0.0264108
C 93.059 349.246 0.0264108
C 94.3163 349.906 0.0264108
C 95.5166 349.147 0.0264108
C 95.4595 347.728 0.0264108
C 96.6597 346.969 0.0264108
C 97.917 347.629 0.0264108
C 99.1172 346.87 0.0264108
C 99.0602 345.451 0.0264108
C 100.26 344.693 0.0264108
C 101.518 345.353 0.0264108
C 102.718 344.594 0.0264108
C 102.661 343.175 0.0264108
C 103.861 342.416 0.0264108
C 105.118 343.076 0.0264108
C 106.319 342.317 0.0264108
C 106.262 340.898 0.0264108
C 107.462 340.14 0.0264108
C 108.719 340.8 0.0264108
C 109.919 340.041 0.0264108
C 109.862 338.622 0.0264108
C 111.062 337.863 0.0264108
C 112.32 338.523 0.0264108
C 113.52 337.764 0.0264108
C 113.463 336.345 0.0264108
C 114.663 335.586 0.0264108
C 115.92 336.246 0.0264108
C 117.121 335.488 0.0264108
C 117.064 334.069 0.0264108
C 118.264 333.31 0.0264108
C 119.521 333.97 0.0264108
C 120.721 333.211 0.0264108
C 120.664 331.792 0.0264108
C 121.865 331.033 0.0264108
C 123.122 331.693 0.0264108
C 124.322 330.935 0.0264108
C 124.265 329.516 0.0264108
C 125.465 328.757 0.0264108
C 126.723 329.417 0.0264108
C 127.923 328.658 0.0264108
C 127.866 327.239 0.0264108
C -149.39 317.965 0.0740119
C -149.541 319.377 0.0740119
C -148.394 320.214 0.0740119
C -147.095 319.639 0.0740119
C -145.948 320.475 0.0740119
C -146.099 321.887 0.0740119
C -144.952 322.724 0.0740119
C -143.654 322.149 0.0740119
C -142.506 322.986 0.0740119
C -142.657 324.398 0.0740119
C -141.51 325.235 0.0740119
C -140.212 324.659 0.0740119
C -139.065 325.496 0.0740119
C -139.216 326.908 0.0740119
C 12.264 -355.428 0.0516932
C -138.068 327.745 0.0740119
C 11.2557 -354.428 0.0516932
C -136.77 327.17 0.0740119
C 9.88568 -354.802 0.0516932
C -135.623 328.007 0.0740119
C 9.52388 -356.175 0.0516932
C -135.774 329.419 0.0740119
C 8.15381 -356.548 0.0516932
C -134.627 330.255 0.0740119
C 7.14554 -355.548 0.0516932
C -133.328 329.68 0.0740119
C 5.77547 -355.921 0.0516932
C -132.181 330.517 0.0740119
C 5.41367 -357.294 0.0516932
C -132.332 331.929 0.0740119
C 4.0436 -357.668 0.0516932
C -131.185 332.766 0.0740119
C 3.03533 -356.668 0.0516932
C -129.887 332.191 0.0740119
C 1.66526 -357.041 0.0516932
C -128.739 333.027 0.0740119
C 1.30346 -358.414 0.0516932
C -128.89 334.439 0.0740119
C -0.066609 -358.787 0.0516932
C -127.743 335.276 0.0740119
C -1.07488 -357.787 0.0516932
C -126.445 334.701 0.0740119
C -2.44495 -358.161 0.0516932
C -125.298 335.538 0.0740119
C -125.449 336.95 0.0740119
C -124.301 337.787 0.0740119
C -5.18509 -358.907 0.0516932
C -123.003 337.211 0.0740119
C -6.55516 -359.28 0.0516932
C -121.856 338.048 0.0740119
C -122.007 339.46 0.0740119
C 73.7412 358.55 0.0264108
C 74.9985 359.21 0.0264108
C 76.1987 358.451 0.0264108
C 76.1417 357.032 0.0264108
C 77.3419 356.273 0.0264108
C 78.5992 356.933 0.0264108
C 79.7994 356.174 0.0264108
C 79.7424 354.755 0.0264108
C 80.9426 353.996 0.0264108
C 82.1999 354.656 0.0264108
C 83.4001 353.898 0.0264108
C 83.3431 352.479 0.0264108
C 84.5433 351.72 0.0264108
C 85.8006 352.38 0.0264108
C 87.0008 351.621 0.0264108
C 86.9437 350.202 0.0264108
C 88.144 349.443 0.0264108
C 89.4013 350.103 0.0264108
C 90.6015 349.345 0.0264108
C 90.5444 347.926 0.0264108
C 91.7447 347.167 0.0264108
C 93.002 347.827 0.0264108
C 94.2022 347.068 0.0264108
C 94.1451 345.649 0.0264108
C 95.3454 344.89 0.0264108
C 96.6027 345.55 0.0264108
C 97.8029 344.791 0.0264108
C 97.7458 343.373 0.0264108
C 98.946 342.614 0.0264108
C 100.203 343.274 0.0264108
C 101.404 342.515 0.0264108
C 101.347 341.096 0.0264108
C 102.547 340.337 0.0264108
C 103.804 340.997 0.0264108
C 105.004 340.238 0.0264108
C 104.947 338.819 0.0264108
C 106.147 338.061 0.0264108
C 107.405 338.721 0.0264108
C 108.605 337.962 0.0264108
C 108.548 336.543 0.0264108
C 109.748 335.784 0.0264108
C 111.005 336.444 0.0264108
C 112.206 335.685 0.0264108
C 112.149 334.266 0.0264108
C 113.349 333.508 0.0264108
C 114.606 334.168 0.0264108
C 115.806 333.409 0.0264108
C 115.749 331.99 0.0264108
C 116.949 331.231 0.0264108
C 118.207 331.891 0.0264108
C 119.407 331.132 0.0264108
C 119.35 329.713 0.0264108
C 120.55 328.954 0.0264108
C 121.807 329.615 0.0264108
C 123.008 328.856 0.0264108
C 122.951 327.437 0.0264108
C 124.151 326.678 0.0264108
C 125.408 327.338 0.0264108
C 126.608 326.579 0.0264108
C 126.551 325.16 0.0264108
C -150.386 315.716 0.0740119
C -149.088 315.141 0.0740119
C -147.94 315.978 0.0740119
C -148.091 317.39 0.0740119
C -146.944 318.227 0.0740119
C -145.646 317.652 0.0740119
C -144.499 318.488 0.0740119
C -144.65 319.9 0.0740119
C -143.502 320.737 0.0740119
C -142.204 320.162 0.0740119
C -141.057 320.999 0.0740119
C -141.208 322.411 0.0740119
C -140.061 323.247 0.0740119
C -138.762 322.672 0.0740119
C -137.615 323.509 0.0740119
C 12.9876 -352.682 0.0516932
C -137.766 324.921 0.0740119
C 11.6175 -353.055 0.0516932
C -136.619 325.758 0.0740119
C 10.6093 -352.055 0.0516932
C -135.321 325.183 0.0740119
C 9.23921 -352.429 0.0516932
C -134.173 326.02 0.0740119
C 8.87741 -353.802 0.0516932
C -134.325 327.431 0.0740119
C 7.50734 -354.175 0.0516932
C -133.177 328.268 0.0740119
C 6.49907 -353.175 0.0516932
C -131.879 327.693 0.0740119
C 5.129 -353.548 0.0516932
C -130.732 328.53 0.0740119
C 4.7672 -354.921 0.0516932
C -130.883 329.942 0.0740119
C 3.39713 -355.295 0.0516932
C -129.736 330.779 0.0740119
C 2.38886 -354.295 0.0516932
C -128.437 330.203 0.0740119
C 1.01879 -354.668 0.0516932
C -127.29 331.04 0.0740119
C 0.656989 -356.041 0.0516932
C -127.441 332.452 0.0740119
C -0.713081 -356.414 0.0516932
C -126.294 333.289 0.0740119
C -1.72135 -355.414 0.0516932
C -124.995 332.714 0.0740119
C -3.09142 -355.788 0.0516932
C -123.848 333.551 0.0740119
C -3.45322 -357.161 0.0516932
C -123.999 334.963 0.0740119
C -4.82329 -357.534 0.0516932
C -122.852 335.799 0.0740119
C -5.83156 -356.534 0.0516932
C -121.554 335.224 0.0740119
C -7.20163 -356.907 0.0516932
C -120.407 336.061 0.0740119
C -7.56343 -358.281 0.0516932
C -120.558 337.473 0.0740119
C -8.9335 -358.654 0.0516932
C -9.94177 -357.654 0.0516932
C -11.3118 -358.027 0.0516932
C -14.052 -358.774 0.0516932
C -15.4221 -359.147 0.0516932
C 73.6841 357.131 0.0264108
C 77.2848 354.854 0.0264108
C 78.4851 354.095 0.0264108
C 78.428 352.676 0.0264108
C 79.6282 351.918 0.0264108
C 80.8855 352.578 0.0264108
C 82.0858 351.819 0.0264108
C 82.0287 350.4 0.0264108
C 83.2289 349.641 0.0264108
C 84.4862 350.301 0.0264108
C 85.6864 349.542 0.0264108
C 85.6294 348.123 0.0264108
C 86.8296 347.364 0.0264108
C 88.0869 348.024 0.0264108
C 89.2871 347.266 0.0264108